(written by ASE)

24416 atoms
6 atom types

0.0                      80  xlo xhi
0.0                      80  ylo yhi
0.0                      80  zlo zhi

Masses

1 26.9815 # Al
2 35.4530 # Cl
3 12.0110 # C
4 1.0080 # H
5 14.0070 # N
6 15.9990 # O




Atoms # atomic

     1   2      51.477147000000002               12.214613               16.044974
     2   2      49.278767999999999               11.691583      19.136514999999999
     3   2      49.385956999999998      15.112965000000001      17.419930999999998
     4   1      50.047286999999997               13.006389      17.533805999999998
     5   2      52.321784000000001      11.087377999999999      5.9790609999999997
     6   2      50.826273999999998               10.338865                2.534176
     7   2      53.046370000000003               13.419438      3.0293990000000002
     8   1      52.064812000000003               11.615228      3.8475419999999998
     9   2               18.965246      59.516302000000003      37.576988999999998
    10   2      17.836213999999998      55.932721000000001      36.837197000000003
    11   2      19.642355999999999      56.732441000000001      40.117792000000001
    12   1      18.814603999999999      57.393819000000001      38.177329999999998
    13   2      22.710913000000001      48.627220999999999      72.536483000000004
    14   2      21.303726000000001      47.383394000000003      75.873664000000005
    15   2               21.000556               45.206947      72.737556999999995
    16   1      21.671731999999999               47.072516               73.715902
    17   2      18.429448000000001      46.801001999999997      33.391348000000001
    18   2               15.281469      47.138502000000003      31.237193999999999
    19   2               14.967278      46.509591999999998      35.001468000000003
    20   1      16.226061999999999               46.816367      33.210005000000002
    21   2      6.2459680000000004               27.569806      59.414301999999999
    22   2      7.8287979999999999      30.894677999999999      58.363622999999997
    23   2                5.146668               30.829777      61.096015000000001
    24   1      6.4071449999999999      29.764756999999999      59.624650000000003
    25   2      47.100082999999998      9.4945920000000008      9.4783950000000008
    26   2               50.474173      7.7041810000000002      9.7504329999999992
    27   2      47.219577999999998      5.7276480000000003               10.156544
    28   1      48.264611000000002      7.6421359999999998      9.7951230000000002
    29   2      54.023834000000001      61.608075999999997      58.744388000000001
    30   2      55.871921999999998      64.736260999999999      57.534804999999999
    31   2      53.016201000000002      65.058138999999997               60.065666
    32   1      54.303986000000002      63.800828000000003      58.781623000000003
    33   2      6.5832839999999999      43.585616999999999      4.6019600000000001
    34   2      7.7616339999999999      40.355471999999999                2.916223
    35   2      5.8509950000000002      40.198360999999998      6.2311550000000002
    36   1      6.7319680000000002      41.379812999999999                4.583113
    37   2      74.086841000000007      71.507469999999998               27.288155
    38   2      73.638189999999994      68.652833000000001      29.800886999999999
    39   2      72.962164999999999      72.267588000000003               30.868848
    40   1      73.562394999999995      70.809297999999998      29.319299999999998
    41   2      27.162517000000001      40.539771000000002               13.182805
    42   2      29.351524999999999      40.431057000000003      16.322946000000002
    43   2      30.266532000000002      42.768555999999997               13.431084
    44   1               28.926859      41.246465000000001      14.312279999999999
    45   2      62.259376000000003      12.545341000000001               29.811325
    46   2      60.952266000000002               16.034084      28.925781000000001
    47   2               60.376655               14.606861      32.432304000000002
    48   1      61.196098999999997               14.395432      30.389807000000001
    49   2      55.528111000000003      15.347141000000001      34.715716999999998
    50   2      56.609174000000003      12.742953999999999      37.306772000000002
    51   2      54.484974000000001      15.743339000000001      38.378901999999997
    52   1      55.540750000000003      14.611143999999999      36.800466999999998
    53   2      79.200637999999998               28.330489      5.3865959999999999
    54   2      78.590237000000002      31.093198999999998      7.9670810000000003
    55   2      77.322295999999994      27.540970999999999      8.6288990000000005
    56   1      78.371056999999993               28.988218      7.3275300000000003
    57   2      55.323059999999998      54.153711999999999                13.07307
    58   2      57.978385000000003      51.642071000000001               11.930719
    59   2      55.590294999999998      53.199350000000003      9.3741760000000003
    60   1      56.297248000000003               52.998379               11.459317
    61   2      70.907056999999995      54.914551000000003      67.331781000000007
    62   2      74.640736000000004      55.760809999999999      67.418644999999998
    63   2      72.140574999999998      58.275773000000001      65.973598999999993
    64   1      72.562790000000007      56.317048999999997      66.908009000000007
    65   2               12.826749      30.053069000000001      62.585774999999998
    66   2      10.388769999999999      27.516114999999999      64.097126000000003
    67   2      9.3435980000000001               31.179624      63.709414000000002
    68   1               10.853035      29.582937000000001      63.464103999999999
    69   2                1.606724      8.8016930000000002      65.861012000000002
    70   2                0.000299               11.059721      68.503882000000004
    71   2                2.099567      12.595511999999999      65.693468999999993
    72   1      1.2355290000000001      10.818979000000001      66.686119000000005
    73   2      46.677934999999998               28.154636      23.373792000000002
    74   2      46.671771999999997      27.145987000000002               19.679655
    75   2      47.675116000000003      30.700109999999999      20.692333000000001
    76   1      47.008277999999997      28.666913000000001      21.248591000000001
    77   2      41.389808000000002      40.855049000000001      3.9217390000000001
    78   2      41.018045999999998      42.983690000000003     0.76029400000000003
    79   2      44.500960999999997      41.970117000000002      1.9874750000000001
    80   1      42.302940999999997      41.936284000000001                2.223166
    81   2               60.457732      8.6458410000000008      65.125748000000002
    82   2      57.417476999999998      10.594645999999999               63.851751
    83   2      56.954698999999998      7.7821530000000001      66.409039000000007
    84   1      58.276632999999997      9.0075470000000006      65.128849000000002
    85   2      73.163068999999993      29.995729999999998      45.815235999999999
    86   2      71.061537000000001                33.19379      45.956755999999999
    87   2      74.429796999999994      33.195137000000003      44.134990999999999
    88   1      72.884800999999996      32.128222000000001      45.302323999999999
    89   2      7.5372880000000002               78.743268      5.9021549999999996
    90   2                6.991123      75.632147000000003      8.0670310000000001
    91   2      4.9971120000000004      76.086042000000006      4.8294550000000003
    92   1      6.5085069999999998      76.820481000000001      6.2662110000000002
    93   2               34.289189      6.0751609999999996      10.555878999999999
    94   2                36.62247      5.2413340000000002      7.6361879999999998
    95   2      33.027532999999998      6.3695000000000004      6.9523219999999997
    96   1               34.646397      5.8953340000000001      8.3814589999999995
    97   2      73.408904000000007      76.071506999999997      51.928747000000001
    98   2      75.506071000000006      77.699764999999999      54.688225000000003
    99   2      74.672717000000006      79.661614999999998      51.506925000000003
   100   1      74.529229999999998      77.810967000000005      52.707965999999999
   101   2      32.979176000000002      63.251280999999999               10.931047
   102   2      31.699704000000001      66.625769000000005      9.6504840000000005
   103   2               30.161424      63.372718999999996      8.3407649999999993
   104   1      31.613430000000001      64.416589999999999                9.640765
   105   2      10.292351999999999      9.6806319999999992               15.604808
   106   2      12.432721000000001      6.7461320000000002      16.817896999999999
   107   2      10.253121999999999      6.3630269999999998      13.692743999999999
   108   1      10.992732999999999      7.5965939999999996               15.371813
   109   2      6.4380420000000003      46.511339999999997      59.518251999999997
   110   2      4.4178199999999999      44.987993000000003      56.643852000000003
   111   2      7.8827290000000003               43.597977      57.496066999999996
   112   1      6.2461979999999997               45.032432      57.886056000000004
   113   2      1.1149039999999999      54.938335000000002      57.076711000000003
   114   2      2.6882069999999998      58.195610000000002      55.820152999999998
   115   2    0.028990999999999999      58.291407999999997      58.573950000000004
   116   1      1.2773680000000001      57.141787999999998      57.156941000000003
   117   2      16.157734999999999      41.096125999999998      17.072113000000002
   118   2               17.713165      37.601747000000003      16.887703999999999
   119   2      14.263362000000001      38.245266999999998               15.355143
   120   1               16.044753      38.981043999999997               16.438316
   121   2      25.705300999999999               11.696164               38.125957
   122   2      27.896191000000002      8.6002550000000006      38.654541999999999
   123   2               24.759383      8.3756620000000002      36.469594999999998
   124   1      26.120291999999999      9.5573580000000007               37.750028
   125   2                23.58408               22.715747      48.733755000000002
   126   2      20.026157000000001      24.058496999999999      48.284021000000003
   127   2      23.018474000000001      26.125029000000001      47.084234000000002
   128   1      22.209569999999999      24.299759999999999      48.033999999999999
   129   2      52.410710000000002      43.343210999999997      18.083932999999998
   130   2      49.423290000000001      42.482517000000001               15.848181
   131   2      49.469267000000002      41.344560000000001      19.504263999999999
   132   1      50.434418000000001               42.390096      17.812128000000001
   133   2      74.099932999999993      28.406030000000001      37.854517000000001
   134   2      71.476549000000006      30.744945999999999      39.374842000000001
   135   2      75.156065999999996      31.083829999999999      40.379987999999997
   136   1      73.577517999999998      30.078272999999999      39.203116000000001
   137   2      10.238022000000001      47.112479999999998      30.418105000000001
   138   2      11.858470000000001      50.554524000000001      29.981598999999999
   139   2      11.302021999999999      48.300193999999998               26.936543
   140   1               11.132837               48.655735               29.112078
   141   2      61.453012000000001                31.16235      52.577981999999999
   142   2      65.179552999999999                30.28434      52.500230999999999
   143   2      63.832743999999998      32.682878000000002      55.164273999999999
   144   1      63.488438000000002      31.376522000000001      53.414166999999999
   145   2      37.884900000000002      54.522936999999999                34.52543
   146   2               34.615223      55.418031999999997      32.744396999999999
   147   2      36.248100999999998      52.005889000000003      32.148584999999997
   148   1      36.249405000000003      53.982281999999998      33.139470000000003
   149   2               17.849117               13.782339               19.516783
   150   2      20.004369000000001               16.922176      19.116320000000002
   151   2      16.481833000000002               17.193372      20.593544999999999
   152   1      18.111771999999998               15.965966                19.74222
   153   2      41.756191999999999      62.405754000000002      20.429946999999999
   154   2      45.223815000000002      63.779048000000003               21.298116
   155   2      43.949084999999997               63.939321      17.690708999999998
   156   1      43.643031999999998      63.374710999999998               19.806255
   157   2               65.240724      13.633240000000001      28.125830000000001
   158   2      67.924053999999998               12.598011      25.597570000000001
   159   2      66.776272000000006      10.129091000000001               28.290343
   160   1      66.647015999999994      12.120108999999999               27.337913
   161   2      78.822845999999998      69.883189999999999      79.998851000000002
   162   2      75.085445000000007      70.717393999999999      79.999724999999998
   163   2               77.664828      73.484932000000001      79.406830999999997
   164   1      77.191039000000004      71.361841999999996      79.801799000000003
   165   2      38.220137999999999      70.882518000000005      4.2376009999999997
   166   2      35.092438000000001      69.396280000000004      5.8724239999999996
   167   2      34.787579999999998      71.391533999999993      2.6181920000000001
   168   1      36.033382000000003      70.556775999999999      4.2427359999999998
   169   2      56.709055999999997      55.819687999999999               53.477359
   170   2      53.878678000000001      58.253467000000001      54.331605000000003
   171   2      57.201065999999997      59.583075000000001      52.968563000000003
   172   1      55.929599000000003      57.885413999999997               53.592506
   173   2      38.044621999999997               21.017681               48.185209
   174   2      34.239094000000001      20.616752999999999      48.039378999999997
   175   2      36.095714999999998               20.079276      51.345143999999998
   176   1      36.126474999999999      20.571238000000001      49.189914000000002
   177   2      40.162202000000001               26.345945      25.008112000000001
   178   2      39.039822999999998      27.697569000000001               21.605549
   179   2      40.561957999999997      24.193414000000001      21.866323000000001
   180   1      39.921326000000001      26.078973000000001      22.826657999999998
   181   2      39.622715999999997      54.220981999999999      17.974827999999999
   182   2      38.146579000000003      52.649718999999997      14.809988000000001
   183   2      41.310872000000003      54.794719999999998      14.585877999999999
   184   1      39.693392000000003               53.888472      15.790228000000001
   185   2      55.383755999999998      79.275047000000001               62.054437
   186   2      54.181178000000003      75.666940999999994      61.607854000000003
   187   2      56.657127000000003      76.528312999999997      64.399219000000002
   188   1      55.407353000000001      77.156764999999993      62.687173999999999
   189   2      57.233156999999999               41.235768      65.896917999999999
   190   2               55.113374      40.027769999999997      68.848411999999996
   191   2      53.694147999999998      42.608741000000002      66.401293999999993
   192   1               55.346888      41.290759000000001      67.048873999999998
   193   2      11.317133999999999      33.935631000000001      14.577856000000001
   194   2      11.006379000000001      30.208960999999999               13.753587
   195   2      13.696808000000001               31.411168      16.199051000000001
   196   1               12.006774               31.851917      14.843502000000001
   197   2      61.788142999999998      48.657769000000002      46.299605999999997
   198   2      64.177352999999997      45.796115999999998      47.175207999999998
   199   2               61.324016      45.215063000000001      44.688273000000002
   200   1      62.429837999999997      46.556313000000003      46.054358999999998
   201   2      64.212997000000001      25.435459000000002      21.282212000000001
   202   2      60.880619000000003      27.315985000000001               21.130765
   203   2      63.994053999999998               28.800241      19.467182000000001
   204   1      63.029223000000002      27.183897000000002      20.626715999999998
   205   2      31.314257999999999      48.770643999999997      44.938965000000003
   206   2      31.434481000000002      52.087139000000001      43.028345999999999
   207   2               29.119515      51.703665000000001      46.054546000000002
   208   1      30.622751000000001      50.853819999999999      44.673954999999999
   209   2      53.183266000000003     0.65046099999999996               15.363864
   210   2      49.842606000000004      2.3886440000000002      16.058676999999999
   211   2      52.484600999999998      4.1150690000000001               13.889963
   212   1      51.836823000000003      2.3847269999999998      15.104164000000001
   213   2                6.181851      60.906829000000002      46.236440000000002
   214   2      5.3761020000000004      64.622330000000005               46.694564
   215   2      6.9798419999999997      62.644139000000003      49.554420999999998
   216   1      6.1792680000000004               62.724435      47.495144000000003
   217   2      21.114100000000001      4.0139959999999997      25.589448999999998
   218   2      23.459661000000001      2.8595380000000001      22.791302000000002
   219   2      23.502127999999999                 1.07959                26.18158
   220   1      22.691963999999999      2.6510370000000001      24.854109999999999
   221   2      52.285611000000003      2.5494460000000001      8.0625889999999991
   222   2      56.050710000000002      3.1406839999999998      7.6903980000000001
   223   2      54.293737999999998     0.54408100000000004      5.4916020000000003
   224   1      54.210020999999998      2.0780699999999999      7.0815250000000001
   225   2               11.961112      62.522996999999997               31.795935
   226   2                12.87581      58.965310000000002      30.714154000000001
   227   2      15.622935999999999               61.593916      31.169927000000001
   228   1      13.486624000000001      61.027405999999999      31.226673999999999
   229   2      61.631734000000002      29.361875999999999      44.477215999999999
   230   2      59.589796999999997      32.314745000000002      45.809550000000002
   231   2      62.809869999999997               32.948715               43.836427
   232   1      61.343800000000002      31.541782000000001      44.707728000000003
   233   2      67.582286999999994      13.174447000000001      73.353504999999998
   234   2      69.602868999999998               12.144707      70.267903000000004
   235   2      70.285426000000001      15.506892000000001      71.969029000000006
   236   1      69.156864999999996      13.608682999999999      71.863478999999998
   237   2               74.988467      29.418552999999999      8.3686260000000008
   238   2      73.372814000000005      31.994865999999998      6.0413249999999996
   239   2      77.178447000000006      31.912790000000001      6.4589660000000002
   240   1      75.179912000000002      31.108737000000001                6.956302
   241   2      79.981566000000001      72.236262999999994                6.468286
   242   2      79.999977999999999      68.550078999999997      5.4310929999999997
   243   2      79.819747000000007      69.495327000000003      9.1375779999999995
   244   1      79.933761000000004      70.093886999999995      7.0123220000000002
   245   2      35.500768999999998      11.313955999999999      25.187505000000002
   246   2      33.234039000000003               11.068495               22.110861
   247   2      35.127661000000003               14.316098               22.839748
   248   1      34.620825000000004      12.232851999999999      23.379367999999999
   249   2      42.919373999999998                4.019444      30.623069000000001
   250   2      39.821353999999999                2.612905      28.865805000000002
   251   2      42.970446000000003     0.46123500000000001      29.208652000000001
   252   1      41.903723999999997      2.3645239999999998      29.565843000000001
   253   2      28.735050999999999      6.2271349999999996      44.429515000000002
   254   2      28.801272000000001      9.7493210000000001      45.930804999999999
   255   2               29.326248      6.6975550000000004      48.183608999999997
   256   1      28.954194000000001      7.5580040000000004      46.181313000000003
   257   2      9.9179619999999993      78.601483999999999      51.826171000000002
   258   2      6.4430480000000001      77.086357000000007      51.284489999999998
   259   2      9.4802619999999997      75.603281999999993      49.484540000000003
   260   1      8.6137580000000007               77.097037      50.865067000000003
   261   2                4.916004      24.242277000000001      56.986069000000001
   262   2      8.5896340000000002      23.261316000000001      56.531959000000001
   263   2                  7.5427      26.935556999999999      56.271405000000001
   264   1      7.0161160000000002               24.813053                56.59648
   265   2               12.344529      39.779164999999999      21.390947000000001
   266   2               10.321994               40.467278      18.212911999999999
   267   2      14.027945000000001      41.419119999999999                18.36759
   268   1      12.231491999999999      40.555186999999997               19.323812
   269   2      32.262503000000002      72.805424000000002      66.574428999999995
   270   2      28.864757999999998      74.130714999999995      67.741900000000001
   271   2      31.785053000000001      76.550774000000004      67.213509999999999
   272   1      30.970770000000002      74.495642000000004      67.176610999999994
   273   2      19.935410000000001      71.088731999999993      8.2612740000000002
   274   2               20.744733      67.438888000000006      7.4319980000000001
   275   2      17.650258999999998      69.106657999999996                5.913189
   276   1      19.443466000000001      69.211425000000006      7.2021490000000004
   277   2      43.484402000000003      55.191355999999999                7.712091
   278   2      46.909173000000003               54.506788      9.2825579999999999
   279   2      43.714830999999997      53.810673000000001      11.276450000000001
   280   1      44.702801999999998      54.502935000000001      9.4237020000000005
   281   2      6.5782220000000002      33.098027999999999      25.432445000000001
   282   2      10.181468000000001      32.339334999999998      26.483661000000001
   283   2      9.3280220000000007      35.700992999999997               24.860429
   284   1      8.6959060000000008      33.712789000000001      25.592179999999999
   285   2      55.035893000000002      14.951352999999999      74.027365000000003
   286   2      56.428831000000002      11.575768999999999      72.874447000000004
   287   2      54.240681000000002      11.773683999999999      76.010818999999998
   288   1               55.235132      12.766932000000001      74.304210999999995
   289   2      25.641573000000001                1.594492      71.274330000000006
   290   2      28.279146000000001     0.14830299999999999      73.644098999999997
   291   2      28.848863000000001      3.5579869999999998      71.996834000000007
   292   1      27.589863000000001                1.766931      72.305090000000007
   293   2      23.361502000000002      36.164644000000003      31.062311999999999
   294   2      23.506823000000001               35.965308      34.883726000000003
   295   2               22.900167      32.795377000000002               32.822778
   296   1               23.256166      34.975105999999997      32.922939999999997
   297   2      66.054766000000001      34.425490000000003      72.200400000000002
   298   2      69.622922000000003      33.707059999999998      73.390433000000002
   299   2               68.691018      37.202129999999997      72.133433999999994
   300   1      68.122904000000005      35.111564000000001      72.574758000000003
   301   2      76.881721999999996      15.663574000000001      54.640076000000001
   302   2      78.502448000000001      19.067996999999998      53.971336999999998
   303   2      75.636297999999996      17.841940000000001      51.747382999999999
   304   1      77.006820000000005               17.524507      53.452930000000002
   305   2      9.7599719999999994      63.480966000000002      20.279979000000001
   306   2      8.1390759999999993               62.680844                 16.9041
   307   2      11.813129999999999      61.795502999999997      17.521757000000001
   308   1      9.9040610000000004               62.652434               18.235277
   309   2      30.771408000000001      72.469145999999995               11.173845
   310   2      28.106753999999999      74.406063000000003      9.2214019999999994
   311   2      27.258807999999998      71.002166000000003      10.757135999999999
   312   1      28.712319000000001      72.625791000000007               10.384129
   313   2      52.472537000000003               54.581007               14.410019
   314   2      54.310037999999999      57.058587000000003               12.140824
   315   2      51.586364000000003      54.790939999999999               10.690522
   316   1      52.789644000000003      55.476846000000002      12.413785000000001
   317   2               25.327914      71.814150999999995      45.366781000000003
   318   2      28.240455000000001      69.457796999999999      46.159725999999999
   319   2      24.755227999999999      68.029244000000006      45.469484000000001
   320   1               26.107865      69.767060000000001      45.665328000000002
   321   2                16.98283               34.049014      29.618615999999999
   322   2               15.462005      33.742097999999999      33.119608999999997
   323   2      16.759796000000001      37.126998999999998               31.885838
   324   1      16.401541000000002      34.972707999999997               31.541356
   325   2               63.412146      71.520087000000004               16.819239
   326   2      64.478401000000005      75.057894000000005      17.824763000000001
   327   2      66.277548999999993      72.021122000000005               19.309714
   328   1      64.722703999999993      72.866367999999994      17.984573000000001
   329   2      67.798771000000002               15.448962      71.467172000000005
   330   2      69.124001000000007      18.509554999999999      69.585525000000004
   331   2      66.504288000000003               18.944478      72.344500999999994
   332   1      67.809020000000004               17.634335      71.132401999999999
   333   2      71.059973999999997      17.914871999999999      31.662849999999999
   334   2               72.346463               16.996105      35.150668000000003
   335   2      74.003215999999995      15.494600999999999      32.041863999999997
   336   1      72.469888999999995      16.801857999999999               32.951794
   337   2      51.904192000000002      39.895043000000001      50.832861000000001
   338   2      55.257820000000002      40.635266000000001      52.526764999999997
   339   2      52.272041000000002      42.965601999999997      53.091264000000002
   340   1      53.144683999999998      41.165306000000001      52.150300999999999
   341   2      52.804898000000001      65.921711999999999      22.349806000000001
   342   2      49.592523999999997      67.703783999999999      23.430980000000002
   343   2      52.681120999999997      69.747558999999995               22.457552
   344   1               51.692847      67.791021999999998      22.746110000000002
   345   2               21.760966      75.344560000000001      3.6344630000000002
   346   2      22.777761000000002      73.999649000000005      7.0726899999999997
   347   2      23.413271999999999      71.902850999999998      3.9320580000000001
   348   1      22.650670000000002      73.749016999999995      4.8797370000000004
   349   2      55.548661000000003      19.064672999999999      67.391953999999998
   350   2      53.663699999999999      20.289643999999999      70.492022000000006
   351   2      53.507691000000001      22.301110999999999      67.237230999999994
   352   1      54.240012999999998      20.551811000000001      68.373734999999996
   353   2               12.982842      8.3984939999999995      53.906168999999998
   354   2      10.530848000000001      5.4571490000000002      53.922792000000001
   355   2               12.597578      6.2446700000000002      57.048881999999999
   356   1               12.037087      6.7001030000000004      54.959285000000001
   357   2                 2.46068      48.463689000000002               34.529069
   358   2      3.0603129999999998      45.151829999999997      36.355564000000001